<?xml version="1.0" encoding="UTF-8"?>

<!-- generated on 2023-11-21 15:22:21 by Eclipse SUMO GUI Version 1.19.0
<configuration xmlns:xsi="http://www.w3.org/2001/XMLSchema-instance" xsi:noNamespaceSchemaLocation="http://sumo.dlr.de/xsd/sumoConfiguration.xsd">

    <input>
        <net-file value="dualRoad.net.xml"/>
        <route-files value="dualRoadRoutes.rou.xml"/>
    </input>

    <output>
        <tripinfo-output value="tripinfo.xml"/>
    </output>

    <traci_server>
        <remote-port value="63148"/>
    </traci_server>

    <gui_only>
        <gui-settings-file value="style.xml"/>
    </gui_only>

</configuration>
-->

<tripinfos xmlns:xsi="http://www.w3.org/2001/XMLSchema-instance" xsi:noNamespaceSchemaLocation="http://sumo.dlr.de/xsd/tripinfo_file.xsd">
    <tripinfo id="13" depart="13.00" departLane="-E26_0" departPos="1.70" departSpeed="0.00" departDelay="0.00" arrival="22.00" arrivalLane="-E26_0" arrivalPos="36.12" arrivalSpeed="7.88" duration="9.00" routeLength="34.42" waitingTime="0.00" waitingCount="0" stopTime="0.00" timeLoss="6.50" rerouteNo="0" devices="tripinfo_13" vType="bicycle" speedFactor="1.12" vaporized=""/>
    <tripinfo id="12" depart="12.00" departLane="E93_0" departPos="1.70" departSpeed="0.00" departDelay="0.00" arrival="48.00" arrivalLane="-E83_0" arrivalPos="78.65" arrivalSpeed="13.99" duration="36.00" routeLength="290.91" waitingTime="0.00" waitingCount="0" stopTime="0.00" timeLoss="13.77" rerouteNo="0" devices="tripinfo_12" vType="bicycle" speedFactor="1.05" vaporized=""/>
    <tripinfo id="5" depart="5.00" departLane="-E58_0" departPos="1.70" departSpeed="0.00" departDelay="0.00" arrival="51.00" arrivalLane="E21_0" arrivalPos="2.46" arrivalSpeed="5.68" duration="46.00" routeLength="351.31" waitingTime="0.00" waitingCount="0" stopTime="0.00" timeLoss="12.44" rerouteNo="0" devices="tripinfo_5" vType="bicycle" speedFactor="0.83" vaporized=""/>
    <tripinfo id="11" depart="11.00" departLane="-E84_0" departPos="1.70" departSpeed="0.00" departDelay="0.00" arrival="59.00" arrivalLane="-E40_0" arrivalPos="31.22" arrivalSpeed="13.72" duration="48.00" routeLength="405.12" waitingTime="0.00" waitingCount="0" stopTime="0.00" timeLoss="18.54" rerouteNo="0" devices="tripinfo_11" vType="bicycle" speedFactor="1.03" vaporized=""/>
    <tripinfo id="19" depart="19.00" departLane="E79_0" departPos="1.70" departSpeed="0.00" departDelay="0.00" arrival="64.00" arrivalLane="E33_0" arrivalPos="19.96" arrivalSpeed="8.74" duration="45.00" routeLength="386.46" waitingTime="0.00" waitingCount="0" stopTime="0.00" timeLoss="19.26" rerouteNo="0" devices="tripinfo_19" vType="bicycle" speedFactor="1.16" vaporized=""/>
    <tripinfo id="7" depart="7.00" departLane="E46_0" departPos="1.70" departSpeed="0.00" departDelay="0.00" arrival="69.00" arrivalLane="E28_0" arrivalPos="11.00" arrivalSpeed="10.14" duration="62.00" routeLength="393.51" waitingTime="2.00" waitingCount="1" stopTime="0.00" timeLoss="25.79" rerouteNo="0" devices="tripinfo_7" vType="bicycle" speedFactor="0.89" vaporized=""/>
    <tripinfo id="6" depart="6.00" departLane="-E14_0" departPos="1.70" departSpeed="0.00" departDelay="0.00" arrival="76.00" arrivalLane="-E47_0" arrivalPos="65.12" arrivalSpeed="13.30" duration="70.00" routeLength="615.10" waitingTime="0.00" waitingCount="0" stopTime="0.00" timeLoss="24.36" rerouteNo="0" devices="tripinfo_6" vType="bicycle" speedFactor="1.05" vaporized=""/>
    <tripinfo id="8" depart="8.00" departLane="-E58_0" departPos="1.70" departSpeed="0.00" departDelay="0.00" arrival="83.00" arrivalLane="E35_0" arrivalPos="37.98" arrivalSpeed="12.99" duration="75.00" routeLength="606.99" waitingTime="0.00" waitingCount="0" stopTime="0.00" timeLoss="24.26" rerouteNo="0" devices="tripinfo_8" vType="bicycle" speedFactor="0.94" vaporized=""/>
    <tripinfo id="1" depart="1.00" departLane="-E69_0" departPos="1.70" departSpeed="0.00" departDelay="0.00" arrival="91.00" arrivalLane="-E58_0" arrivalPos="59.88" arrivalSpeed="12.74" duration="90.00" routeLength="737.40" waitingTime="3.00" waitingCount="1" stopTime="0.00" timeLoss="30.19" rerouteNo="0" devices="tripinfo_1" vType="bicycle" speedFactor="0.94" vaporized=""/>
    <tripinfo id="18" depart="18.00" departLane="E74_0" departPos="1.70" departSpeed="0.00" departDelay="0.00" arrival="92.00" arrivalLane="E39_0" arrivalPos="31.84" arrivalSpeed="12.98" duration="74.00" routeLength="630.91" waitingTime="0.00" waitingCount="0" stopTime="0.00" timeLoss="23.46" rerouteNo="0" devices="tripinfo_18" vType="bicycle" speedFactor="0.94" vaporized=""/>
    <tripinfo id="0" depart="0.00" departLane="E44_0" departPos="1.70" departSpeed="0.00" departDelay="0.00" arrival="93.00" arrivalLane="-E12_0" arrivalPos="43.48" arrivalSpeed="11.16" duration="93.00" routeLength="688.71" waitingTime="0.00" waitingCount="0" stopTime="0.00" timeLoss="41.56" rerouteNo="0" devices="tripinfo_0" vType="bicycle" speedFactor="1.06" vaporized=""/>
    <tripinfo id="9" depart="9.00" departLane="E71_0" departPos="1.70" departSpeed="0.00" departDelay="0.00" arrival="93.00" arrivalLane="-E10_0" arrivalPos="3.55" arrivalSpeed="5.95" duration="84.00" routeLength="709.92" waitingTime="0.00" waitingCount="0" stopTime="0.00" timeLoss="20.47" rerouteNo="0" devices="tripinfo_9" vType="bicycle" speedFactor="0.86" vaporized=""/>
    <tripinfo id="10" depart="10.00" departLane="E70_0" departPos="1.70" departSpeed="0.00" departDelay="0.00" arrival="93.00" arrivalLane="E52_0" arrivalPos="45.04" arrivalSpeed="14.23" duration="83.00" routeLength="757.34" waitingTime="0.00" waitingCount="0" stopTime="0.00" timeLoss="28.19" rerouteNo="0" devices="tripinfo_10" vType="bicycle" speedFactor="1.09" vaporized=""/>
    <tripinfo id="16" depart="16.00" departLane="E28_0" departPos="1.70" departSpeed="0.00" departDelay="0.00" arrival="95.00" arrivalLane="E95_0" arrivalPos="37.68" arrivalSpeed="9.00" duration="79.00" routeLength="612.82" waitingTime="4.00" waitingCount="1" stopTime="0.00" timeLoss="25.02" rerouteNo="0" devices="tripinfo_16" vType="bicycle" speedFactor="0.88" vaporized=""/>
    <tripinfo id="2" depart="2.00" departLane="E59_0" departPos="1.70" departSpeed="0.00" departDelay="0.00" arrival="102.00" arrivalLane="E48_0" arrivalPos="6.40" arrivalSpeed="13.56" duration="100.00" routeLength="940.16" waitingTime="0.00" waitingCount="0" stopTime="0.00" timeLoss="30.45" rerouteNo="0" devices="tripinfo_2" vType="bicycle" speedFactor="1.01" vaporized=""/>
    <tripinfo id="14" depart="14.00" departLane="E77_0" departPos="1.70" departSpeed="0.00" departDelay="0.00" arrival="103.00" arrivalLane="E37_0" arrivalPos="43.72" arrivalSpeed="13.36" duration="89.00" routeLength="828.77" waitingTime="0.00" waitingCount="0" stopTime="0.00" timeLoss="25.63" rerouteNo="0" devices="tripinfo_14" vType="bicycle" speedFactor="0.99" vaporized=""/>
    <tripinfo id="15" depart="15.00" departLane="E70_0" departPos="1.70" departSpeed="0.00" departDelay="0.00" arrival="107.00" arrivalLane="E57_0" arrivalPos="41.37" arrivalSpeed="12.70" duration="92.00" routeLength="894.59" waitingTime="0.00" waitingCount="0" stopTime="0.00" timeLoss="19.94" rerouteNo="0" devices="tripinfo_15" vType="bicycle" speedFactor="0.93" vaporized=""/>
    <tripinfo id="17" depart="17.00" departLane="-E90_0" departPos="1.70" departSpeed="0.00" departDelay="0.00" arrival="108.00" arrivalLane="E29_0" arrivalPos="83.27" arrivalSpeed="12.55" duration="91.00" routeLength="830.66" waitingTime="0.00" waitingCount="0" stopTime="0.00" timeLoss="24.90" rerouteNo="0" devices="tripinfo_17" vType="bicycle" speedFactor="0.94" vaporized=""/>
    <tripinfo id="4" depart="4.00" departLane="E103_0" departPos="1.70" departSpeed="0.00" departDelay="0.00" arrival="113.00" arrivalLane="-E13_0" arrivalPos="77.27" arrivalSpeed="14.24" duration="109.00" routeLength="845.51" waitingTime="0.00" waitingCount="0" stopTime="0.00" timeLoss="44.08" rerouteNo="0" devices="tripinfo_4" vType="bicycle" speedFactor="1.03" vaporized=""/>
    <tripinfo id="3" depart="3.00" departLane="E84_0" departPos="1.70" departSpeed="0.00" departDelay="0.00" arrival="128.00" arrivalLane="-E24_0" arrivalPos="45.04" arrivalSpeed="11.99" duration="125.00" routeLength="1126.81" waitingTime="0.00" waitingCount="0" stopTime="0.00" timeLoss="45.06" rerouteNo="0" devices="tripinfo_3" vType="bicycle" speedFactor="1.08" vaporized=""/>
</tripinfos>
